version 2
run General-0-20190208-19:11:39-22388
attr configname General
attr datetime 20190208-19:11:39
attr experiment General
attr inifile omnetpp.ini
attr iterationvars ""
attr iterationvarsf ""
attr measurement ""
attr network sdn_network
attr processid 22388
attr repetition 0
attr replication #0
attr resultdir results
attr runnumber 0
attr seedset 0

vector 0 sdn_network.switches[6] hopCount:vector ETV
attr interpolationmode none
attr source arrival
attr title "hop count, vector"
vector 1 sdn_network.switches[8] hopCount:vector ETV
attr interpolationmode none
attr source arrival
attr title "hop count, vector"
vector 2 sdn_network.switches[2] hopCount:vector ETV
attr interpolationmode none
attr source arrival
attr title "hop count, vector"
vector 3 sdn_network.switches[9] hopCount:vector ETV
attr interpolationmode none
attr source arrival
attr title "hop count, vector"
vector 4 sdn_network.switches[11] hopCount:vector ETV
attr interpolationmode none
attr source arrival
attr title "hop count, vector"
vector 5 sdn_network.switches[0] hopCount:vector ETV
attr interpolationmode none
attr source arrival
attr title "hop count, vector"
vector 6 sdn_network.switches[10] hopCount:vector ETV
attr interpolationmode none
attr source arrival
attr title "hop count, vector"
vector 7 sdn_network.switches[4] hopCount:vector ETV
attr interpolationmode none
attr source arrival
attr title "hop count, vector"
vector 8 sdn_network.switches[7] hopCount:vector ETV
attr interpolationmode none
attr source arrival
attr title "hop count, vector"
vector 9 sdn_network.switches[3] hopCount:vector ETV
attr interpolationmode none
attr source arrival
attr title "hop count, vector"
vector 10 sdn_network.switches[5] hopCount:vector ETV
attr interpolationmode none
attr source arrival
attr title "hop count, vector"
vector 11 sdn_network.switches[12] hopCount:vector ETV
attr interpolationmode none
attr source arrival
attr title "hop count, vector"
vector 12 sdn_network.switches[1] hopCount:vector ETV
attr interpolationmode none
attr source arrival
attr title "hop count, vector"
0	62	3.1	31
0	218	10.9	2
0	698	34.9	1
0	1150	57.5	103
0	1498	74.9	51
0	2542	127.1	1
0	2658	132.9	38
0	2746	137.3	7
0	3542	177.1	24
0	4474	223.7	1
0	5302	265.1	37
0	5950	297.5	15
0	6602	330.1	20
0	8494	424.7	3
0	8710	435.5	30
0	9830	491.5	149
0	10606	530.3	29
0	10610	530.5	1
0	10774	538.7	4
0	11066	553.3	23
0	11894	594.7	19
0	12142	607.1	88
0	12374	618.7	29
0	13326	666.3	4
0	13618	680.9	49
0	14910	745.5	19
0	17790	889.5	9
0	19174	958.7	13
0	19742	987.1	7
0	20814	1040.7	70
0	21394	1069.7	50
0	21974	1098.7	76
0	22274	1113.7	27
0	22298	1114.9	7
0	25726	1286.3	139
0	28142	1407.1	20
0	28882	1444.1	94
0	29438	1471.9	85
0	31050	1552.5	41
0	31970	1598.5	301
1	160	8	49
1	476	23.8	10
1	1308	65.4	45
1	1336	66.8	9
1	1392	69.6	8
1	1556	77.8	25
1	3800	190	62
1	4616	230.8	71
1	5144	257.2	194
1	5456	272.8	44
1	8460	423	4
1	9104	455.2	63
1	9356	467.8	37
1	10764	538.2	4
1	10852	542.6	35
1	12316	615.8	71
1	12500	625	13
1	13160	658	18
1	14160	708	12
1	14568	728.4	39
1	15924	796.2	19
1	16704	835.2	7
1	17396	869.8	57
1	17772	888.6	36
1	17796	889.8	3
1	18904	945.2	56
1	20196	1009.8	6
1	20328	1016.4	6
1	22908	1145.4	2
1	23684	1184.2	31
1	24236	1211.8	85
1	25036	1251.8	46
1	25400	1270	96
1	25448	1272.4	13
1	26744	1337.2	5
1	29252	1462.6	37
1	29772	1488.6	8
1	30636	1531.8	44
1	32176	1608.8	52
2	184	9.2	12
2	940	47	91
2	1616	80.8	30
2	1968	98.4	127
2	3620	181	3
2	3956	197.8	71
2	4756	237.8	11
2	5776	288.8	100
2	5920	296	58
2	6372	318.6	99
2	8300	415	3
2	9404	470.2	8
2	9876	493.8	23
2	10088	504.4	12
2	11004	550.2	13
2	11776	588.8	53
2	13452	672.6	27
2	14416	720.8	9
2	14728	736.4	7
2	14872	743.6	40
2	15380	769	98
2	16384	819.2	67
2	18508	925.4	59
2	20184	1009.2	16
2	24000	1200	77
2	24756	1237.8	4
2	25208	1260.4	15
2	26572	1328.6	64
2	27000	1350	128
2	27640	1382	12
2	28052	1402.6	29
2	28404	1420.2	95
2	28588	1429.4	61
2	29672	1483.6	28
2	29748	1487.4	33
2	29936	1496.8	75
2	31100	1555	25
3	214	10.7	15
3	222	11.1	2
3	1194	59.7	20
3	1318	65.9	2
3	1506	75.3	4
3	2554	127.7	5
3	3218	160.9	20
3	5206	260.3	3
3	6174	308.7	16
3	6470	323.5	37
3	7486	374.3	1
3	7726	386.3	1
3	9110	455.5	1
3	9478	473.9	37
3	10350	517.5	14
3	10766	538.3	1
3	10978	548.9	16
3	11462	573.1	36
3	11786	589.3	5
3	12378	618.9	2
3	13018	650.9	19
3	13162	658.1	1
3	13334	666.7	4
3	13770	688.5	3
3	13898	694.9	8
3	14226	711.3	3
3	14974	748.7	23
3	15074	753.7	42
3	22994	1149.7	17
3	23686	1184.3	1
3	26278	1313.9	14
3	26734	1336.7	4
3	30118	1505.9	8
3	30322	1516.1	26
3	31194	1559.7	2
3	32178	1608.9	1
4	228	11.4	3
4	2100	105	19
4	2732	136.6	37
4	3560	178	9
4	4664	233.2	24
4	5200	260	18
4	5228	261.4	11
4	5368	268.4	33
4	5572	278.6	58
4	5804	290.2	14
4	5964	298.2	7
4	7636	381.8	4
4	7668	383.4	11
4	8368	418.4	34
4	9236	461.8	63
4	9376	468.8	6
4	10368	518.4	9
4	10548	527.4	77
4	11964	598.2	2
4	12160	608	9
4	12524	626.2	10
4	12616	630.8	15
4	12872	643.6	23
4	13124	656.2	23
4	13520	676	34
4	13760	688	71
4	14060	703	35
4	14108	705.4	11
4	14480	724	32
4	15080	754	3
4	15720	786	14
4	17964	898.2	17
4	18080	904	26
4	18236	911.8	1
4	20044	1002.2	33
4	21028	1051.4	25
4	21576	1078.8	71
4	22212	1110.6	53
4	22816	1140.8	7
4	22924	1146.2	8
4	24376	1218.8	55
4	24620	1231	36
4	24692	1234.6	1
4	24944	1247.2	7
4	26444	1322.2	66
4	27408	1370.4	4
4	28604	1430.2	8
4	30644	1532.2	4
4	30772	1538.6	17
4	31228	1561.4	13
4	32072	1603.6	51
5	292	14.6	32
5	456	22.8	20
5	676	33.8	100
5	944	47.2	2
5	2044	102.2	16
5	2492	124.6	196
5	3960	198	1
5	4120	206	74
5	7136	356.8	145
5	7948	397.4	42
5	8452	422.6	30
5	10024	501.2	1
5	10320	516	6
5	10696	534.8	36
5	11020	551	8
5	12752	637.6	68
5	12980	649	54
5	14928	746.4	7
5	15180	759	50
5	16204	810.2	38
5	17700	885	49
5	17864	893.2	6
5	18196	909.8	8
5	18944	947.2	20
5	19856	992.8	57
5	20232	1011.6	1
5	20624	1031.2	148
5	22960	1148	18
5	24548	1227.4	2
5	24680	1234	30
5	24888	1244.4	45
5	25420	1271	10
5	25796	1289.8	35
5	25908	1295.4	12
5	27440	1372	16
5	27748	1387.4	54
5	30548	1527.4	1
5	30732	1536.6	13
5	30932	1546.6	42
6	416	20.8	62
6	1396	69.8	2
6	4156	207.8	9
6	4448	222.4	52
6	5576	278.8	1
6	6676	333.8	37
6	7484	374.2	1
6	7628	381.4	42
6	7724	386.2	28
6	9364	468.2	4
6	10160	508	36
6	10624	531.2	7
6	11856	592.8	30
6	11960	598	21
6	13032	651.6	7
6	13764	688.2	2
6	14220	711	30
6	14792	739.6	32
6	15444	772.2	32
6	15740	787	10
6	16708	835.4	2
6	18128	906.4	24
6	18344	917.2	54
6	19148	957.4	25
6	20152	1007.6	9
6	20316	1015.8	42
6	21412	1070.6	9
6	21648	1082.4	18
6	22096	1104.8	12
6	22220	1111	4
6	22284	1114.2	4
6	22324	1116.2	13
6	22904	1145.2	44
6	22996	1149.8	1
6	23472	1173.6	58
6	23704	1185.2	9
6	24524	1226.2	2
6	24688	1234.4	4
6	26000	1300	1
6	27608	1380.4	11
6	29268	1463.4	8
6	29492	1474.6	27
6	29616	1480.8	11
6	29756	1487.8	3
6	30848	1542.4	3
7	696	34.8	10
7	1376	68.8	20
7	2012	100.6	21
7	2540	127	24
7	2544	127.2	1
7	3676	183.8	28
7	3972	198.6	6
7	4472	223.6	12
7	4724	236.2	21
7	5164	258.2	10
7	7544	377.2	29
7	7764	388.2	19
7	7864	393.2	15
7	8488	424.4	14
7	9108	455.4	2
7	9388	469.4	6
7	10308	515.4	13
7	10608	530.4	1
7	10756	537.8	9
7	11068	553.4	1
7	11796	589.8	5
7	12504	625.2	2
7	13828	691.4	25
7	15184	759.2	2
7	15692	784.6	11
7	15780	789	20
7	16128	806.4	5
7	16240	812	18
7	18180	909	23
7	18540	927	16
7	18792	939.6	57
7	19568	978.4	21
7	20648	1032.4	3
7	21068	1053.4	20
7	21280	1064	3
7	21612	1080.6	18
7	22276	1113.8	1
7	22352	1117.6	14
7	23356	1167.8	17
7	24544	1227.2	10
7	24784	1239.2	14
7	25144	1257.2	13
7	25884	1294.2	14
7	26232	1311.6	17
7	26312	1315.6	17
7	30324	1516.2	1
7	31284	1564.2	2
8	758	37.9	30
8	2062	103.1	9
8	2582	129.1	10
8	4682	234.1	9
8	5978	298.9	7
8	7646	382.3	5
8	8510	425.5	8
8	8978	448.9	2
8	10738	536.9	21
8	10906	545.3	27
8	11506	575.3	22
8	11918	595.9	12
8	12474	623.7	48
8	12826	641.3	37
8	13778	688.9	4
8	13858	692.9	15
8	15886	794.3	53
8	16406	820.3	11
8	18386	919.3	21
8	21294	1064.7	7
8	23230	1161.5	117
8	23498	1174.9	13
8	24266	1213.3	15
8	25178	1258.9	17
8	25998	1299.9	42
8	26250	1312.5	9
8	26726	1336.3	38
8	27610	1380.5	1
9	1154	57.7	2
9	1218	60.9	1
9	1970	98.5	1
9	2562	128.1	4
9	3258	162.9	20
9	3814	190.7	7
9	3958	197.9	1
9	4138	206.9	9
9	6494	324.7	12
9	7286	364.3	25
9	7834	391.7	35
9	8650	432.5	4
9	8974	448.7	23
9	9282	464.1	23
9	10394	519.7	13
9	11390	569.5	4
9	12586	629.3	31
9	13078	653.9	23
9	13398	669.9	32
9	14490	724.5	5
9	14714	735.7	2
9	14914	745.7	2
9	16018	800.9	47
9	16250	812.5	5
9	17602	880.1	4
9	17982	899.1	9
9	18134	906.7	3
9	19594	979.7	13
9	20126	1006.3	41
9	21434	1071.7	11
9	22106	1105.3	5
9	23846	1192.3	71
9	25422	1271.1	1
9	28934	1446.7	26
9	29578	1478.9	43
9	29594	1479.7	7
9	29750	1487.5	1
9	30102	1505.1	60
9	30342	1517.1	9
9	30738	1536.9	3
9	31102	1555.1	1
10	1216	60.8	11
10	4344	217.2	21
10	6396	319.8	12
10	6828	341.4	29
10	7236	361.8	3
10	8392	419.6	12
10	8928	446.4	109
10	9532	476.6	7
10	10064	503.2	20
10	11508	575.4	1
10	14136	706.8	14
10	14612	730.6	22
10	17488	874.4	46
10	17852	892.6	28
10	18028	901.4	23
10	18624	931.2	42
10	19292	964.6	59
10	19640	982	23
10	19728	986.4	5
10	20828	1041.4	7
10	22072	1103.6	49
10	24520	1226	21
10	24748	1237.4	28
10	25856	1292.8	30
10	27400	1370	23
10	27616	1380.8	3
10	29580	1479	1
10	30420	1521	39
10	30680	1534	18
10	30788	1539.4	8
10	30968	1548.4	18
10	31280	1564	25
10	31368	1568.4	42
11	1314	65.7	3
11	3494	174.7	118
11	5574	278.7	1
11	6562	328.1	34
11	6846	342.3	9
11	7230	361.5	47
11	7482	374.1	98
11	9518	475.9	20
11	9914	495.7	19
11	10282	514.1	61
11	11966	598.3	1
11	13882	694.1	12
11	14086	704.3	13
11	14990	749.5	8
11	17594	879.7	53
11	17930	896.5	33
11	18234	911.7	19
11	18390	919.5	2
11	18646	932.3	11
11	21174	1058.7	53
11	21822	1091.1	34
11	23322	1166.1	46
11	23622	1181.1	62
11	24690	1234.5	1
11	24798	1239.9	7
11	24930	1246.5	21
11	25118	1255.9	41
11	26198	1309.9	99
11	28214	1410.7	36
11	28694	1434.7	45
11	29682	1484.1	5
11	29786	1489.3	7
11	29982	1499.1	23
11	30706	1535.3	13
11	30842	1542.1	27
11	31190	1559.5	44
11	31230	1561.5	1
12	1714	85.7	49
12	3178	158.9	216
12	3614	180.7	27
12	4302	215.1	73
12	4734	236.7	5
12	6142	307.1	82
12	6770	338.5	47
12	8294	414.7	173
12	8642	432.1	66
12	10022	501.1	54
12	10322	516.1	1
12	10782	539.1	4
12	10946	547.3	20
12	11382	569.1	157
12	11670	583.5	81
12	12174	608.7	7
12	13318	665.9	78
12	13990	699.5	46
12	14398	719.9	86
12	14710	735.5	49
12	15670	783.5	113
12	16118	805.9	50
12	16690	834.5	142
12	17282	864.1	287
12	18678	933.9	16
12	19098	954.9	77
12	19526	976.3	117
12	19718	985.9	39
12	19978	998.9	61
12	20134	1006.7	4
12	20230	1011.5	17
12	20642	1032.1	9
12	20674	1033.7	13
12	20978	1048.9	75
12	21274	1063.7	50
12	21754	1087.7	53
12	22802	1140.1	225
12	24066	1203.3	33
12	24478	1223.9	51
12	25914	1295.7	3
12	26650	1332.5	39
12	27354	1367.7	177
12	27586	1379.3	73
12	27994	1399.7	123
12	28102	1405.1	25
12	28466	1423.3	31
12	29178	1458.9	122
12	30270	1513.5	76
12	30546	1527.3	63
12	31202	1560.1	4

